MODEL 1
REMARK VINA RESULT:    -5.338      0.000      0.000
REMARK INTER + INTRA:          -6.666
REMARK INTER:                  -6.430
REMARK INTRA:                  -0.236
REMARK UNBOUND:                -0.236
REMARK  Name = 53323638
REMARK  5 active torsions:
REMARK  status: ('A' for Active; 'I' for Inactive)
REMARK    1  A    between atoms: O_1  and  C_7
REMARK    2  A    between atoms: O_2  and  C_12
REMARK    3  A    between atoms: O_4  and  C_13
REMARK    4  A    between atoms: CA_9  and  C_12
REMARK    5  A    between atoms: CA_11  and  C_13
REMARK                            x       y       z     vdW  Elec       q    Type
REMARK                         _______ _______ _______ _____ _____    ______ ____
ROOT
ATOM      1  N   UNL     1       9.754  -5.604   9.194  0.00  0.00    +0.000 NA
ATOM      2  C   UNL     1      11.621  -4.269  10.947  0.00  0.00    +0.000 C 
ATOM      3  C   UNL     1      10.835  -5.463  11.470  0.00  0.00    +0.000 C 
ATOM      4  CA  UNL     1       9.602  -5.787  10.633  0.00  0.00    +0.000 C 
ATOM      5  C   UNL     1      11.951  -4.456   9.477  0.00  0.00    +0.000 C 
ATOM      6  CA  UNL     1      10.782  -5.008   8.712  0.00  0.00    +0.000 C 
ENDROOT
BRANCH   2   7
ATOM      7  O   UNL     1      10.899  -3.057  11.147  0.00  0.00    +0.000 OA
ATOM      8  H   UNL     1      11.544  -2.360  11.355  0.00  0.00    +0.000 HD
ENDBRANCH   2   7
BRANCH   4  10
ATOM      9  OXT UNL     1       7.727  -5.191  12.035  0.00  0.00    +0.000 OA
ATOM     10  C   UNL     1       8.418  -4.971  11.051  0.00  0.00    +0.000 C 
BRANCH  10  11
ATOM     11  O   UNL     1       8.210  -3.951  10.185  0.00  0.00    +0.000 OA
ATOM     12  H   UNL     1       7.262  -3.857   9.949  0.00  0.00    +0.000 HD
ENDBRANCH  10  11
ENDBRANCH   4  10
BRANCH   6  14
ATOM     13  OXT UNL     1      11.503  -5.658   6.555  0.00  0.00    +0.000 OA
ATOM     14  C   UNL     1      10.849  -4.894   7.229  0.00  0.00    +0.000 C 
BRANCH  14  15
ATOM     15  O   UNL     1      10.096  -3.861   6.837  0.00  0.00    +0.000 OA
ATOM     16  H   UNL     1       9.226  -3.841   7.291  0.00  0.00    +0.000 HD
ENDBRANCH  14  15
ENDBRANCH   6  14
TORSDOF 5
ENDMDL
MODEL 2
REMARK VINA RESULT:    -5.135      2.388      3.181
REMARK INTER + INTRA:          -6.421
REMARK INTER:                  -6.054
REMARK INTRA:                  -0.367
REMARK UNBOUND:                -0.236
REMARK  Name = 53323638
REMARK  5 active torsions:
REMARK  status: ('A' for Active; 'I' for Inactive)
REMARK    1  A    between atoms: O_1  and  C_7
REMARK    2  A    between atoms: O_2  and  C_12
REMARK    3  A    between atoms: O_4  and  C_13
REMARK    4  A    between atoms: CA_9  and  C_12
REMARK    5  A    between atoms: CA_11  and  C_13
REMARK                            x       y       z     vdW  Elec       q    Type
REMARK                         _______ _______ _______ _____ _____    ______ ____
ROOT
ATOM      1  N   UNL     1       9.743  -6.854  11.785  0.00  0.00    +0.000 NA
ATOM      2  C   UNL     1       9.148  -4.279  10.620  0.00  0.00    +0.000 C 
ATOM      3  C   UNL     1       9.410  -4.374  12.117  0.00  0.00    +0.000 C 
ATOM      4  CA  UNL     1       9.270  -5.791  12.664  0.00  0.00    +0.000 C 
ATOM      5  C   UNL     1      10.008  -5.279   9.868  0.00  0.00    +0.000 C 
ATOM      6  CA  UNL     1      10.048  -6.610  10.563  0.00  0.00    +0.000 C 
ENDROOT
BRANCH   2   7
ATOM      7  O   UNL     1       7.770  -4.488  10.330  0.00  0.00    +0.000 OA
ATOM      8  H   UNL     1       7.500  -3.819   9.679  0.00  0.00    +0.000 HD
ENDBRANCH   2   7
BRANCH   4  10
ATOM      9  OXT UNL     1       6.959  -5.291  13.160  0.00  0.00    +0.000 OA
ATOM     10  C   UNL     1       7.849  -6.115  13.009  0.00  0.00    +0.000 C 
BRANCH  10  11
ATOM     11  O   UNL     1       7.680  -7.453  13.135  0.00  0.00    +0.000 OA
ATOM     12  H   UNL     1       8.159  -7.951  12.438  0.00  0.00    +0.000 HD
ENDBRANCH  10  11
ENDBRANCH   4  10
BRANCH   6  14
ATOM     13  OXT UNL     1      10.030  -8.857   9.824  0.00  0.00    +0.000 OA
ATOM     14  C   UNL     1      10.541  -7.761   9.759  0.00  0.00    +0.000 C 
BRANCH  14  15
ATOM     15  O   UNL     1      11.576  -7.360   9.013  0.00  0.00    +0.000 OA
ATOM     16  H   UNL     1      11.500  -6.420   8.746  0.00  0.00    +0.000 HD
ENDBRANCH  14  15
ENDBRANCH   6  14
TORSDOF 5
ENDMDL
MODEL 3
REMARK VINA RESULT:    -5.119     24.436     25.535
REMARK INTER + INTRA:          -6.401
REMARK INTER:                  -6.034
REMARK INTRA:                  -0.368
REMARK UNBOUND:                -0.236
REMARK  Name = 53323638
REMARK  5 active torsions:
REMARK  status: ('A' for Active; 'I' for Inactive)
REMARK    1  A    between atoms: O_1  and  C_7
REMARK    2  A    between atoms: O_2  and  C_12
REMARK    3  A    between atoms: O_4  and  C_13
REMARK    4  A    between atoms: CA_9  and  C_12
REMARK    5  A    between atoms: CA_11  and  C_13
REMARK                            x       y       z     vdW  Elec       q    Type
REMARK                         _______ _______ _______ _____ _____    ______ ____
ROOT
ATOM      1  N   UNL     1      -2.654  12.909  -2.117  0.00  0.00    +0.000 NA
ATOM      2  C   UNL     1      -5.529  12.947  -1.846  0.00  0.00    +0.000 C 
ATOM      3  C   UNL     1      -4.684  12.364  -0.720  0.00  0.00    +0.000 C 
ATOM      4  CA  UNL     1      -3.269  12.000  -1.156  0.00  0.00    +0.000 C 
ATOM      5  C   UNL     1      -4.807  14.110  -2.501  0.00  0.00    +0.000 C 
ATOM      6  CA  UNL     1      -3.348  13.815  -2.702  0.00  0.00    +0.000 C 
ENDROOT
BRANCH   2   7
ATOM      7  O   UNL     1      -5.848  11.949  -2.811  0.00  0.00    +0.000 OA
ATOM      8  H   UNL     1      -5.103  11.892  -3.433  0.00  0.00    +0.000 HD
ENDBRANCH   2   7
BRANCH   4  10
ATOM      9  OXT UNL     1      -3.445  10.364  -2.925  0.00  0.00    +0.000 OA
ATOM     10  C   UNL     1      -3.208  10.630  -1.755  0.00  0.00    +0.000 C 
BRANCH  10  11
ATOM     11  O   UNL     1      -2.854   9.714  -0.822  0.00  0.00    +0.000 OA
ATOM     12  H   UNL     1      -3.118   9.990   0.082  0.00  0.00    +0.000 HD
ENDBRANCH  10  11
ENDBRANCH   4  10
BRANCH   6  14
ATOM     13  OXT UNL     1      -1.475  15.052  -3.450  0.00  0.00    +0.000 OA
ATOM     14  C   UNL     1      -2.617  14.703  -3.647  0.00  0.00    +0.000 C 
BRANCH  14  15
ATOM     15  O   UNL     1      -3.422  15.003  -4.673  0.00  0.00    +0.000 OA
ATOM     16  H   UNL     1      -3.139  14.571  -5.507  0.00  0.00    +0.000 HD
ENDBRANCH  14  15
ENDBRANCH   6  14
TORSDOF 5
ENDMDL
MODEL 4
REMARK VINA RESULT:    -4.958     23.045     24.136
REMARK INTER + INTRA:          -6.208
REMARK INTER:                  -5.844
REMARK INTRA:                  -0.364
REMARK UNBOUND:                -0.236
REMARK  Name = 53323638
REMARK  5 active torsions:
REMARK  status: ('A' for Active; 'I' for Inactive)
REMARK    1  A    between atoms: O_1  and  C_7
REMARK    2  A    between atoms: O_2  and  C_12
REMARK    3  A    between atoms: O_4  and  C_13
REMARK    4  A    between atoms: CA_9  and  C_12
REMARK    5  A    between atoms: CA_11  and  C_13
REMARK                            x       y       z     vdW  Elec       q    Type
REMARK                         _______ _______ _______ _____ _____    ______ ____
ROOT
ATOM      1  N   UNL     1       4.602   2.309 -11.515  0.00  0.00    +0.000 NA
ATOM      2  C   UNL     1       5.815   3.534 -13.832  0.00  0.00    +0.000 C 
ATOM      3  C   UNL     1       6.399   3.812 -12.454  0.00  0.00    +0.000 C 
ATOM      4  CA  UNL     1       5.438   3.488 -11.315  0.00  0.00    +0.000 C 
ATOM      5  C   UNL     1       5.287   2.113 -13.906  0.00  0.00    +0.000 C 
ATOM      6  CA  UNL     1       4.541   1.733 -12.659  0.00  0.00    +0.000 C 
ENDROOT
BRANCH   2   7
ATOM      7  O   UNL     1       4.785   4.467 -14.145  0.00  0.00    +0.000 OA
ATOM      8  H   UNL     1       5.071   5.340 -13.826  0.00  0.00    +0.000 HD
ENDBRANCH   2   7
BRANCH   4  10
ATOM      9  OXT UNL     1       4.737   5.800 -11.303  0.00  0.00    +0.000 OA
ATOM     10  C   UNL     1       4.514   4.630 -11.026  0.00  0.00    +0.000 C 
BRANCH  10  11
ATOM     11  O   UNL     1       3.390   4.192 -10.410  0.00  0.00    +0.000 OA
ATOM     12  H   UNL     1       3.240   3.234 -10.557  0.00  0.00    +0.000 HD
ENDBRANCH  10  11
ENDBRANCH   4  10
BRANCH   6  14
ATOM     13  OXT UNL     1       3.392   0.015 -13.809  0.00  0.00    +0.000 OA
ATOM     14  C   UNL     1       3.676   0.525 -12.748  0.00  0.00    +0.000 C 
BRANCH  14  15
ATOM     15  O   UNL     1       3.314   0.156 -11.515  0.00  0.00    +0.000 OA
ATOM     16  H   UNL     1       2.605  -0.521 -11.522  0.00  0.00    +0.000 HD
ENDBRANCH  14  15
ENDBRANCH   6  14
TORSDOF 5
ENDMDL
MODEL 5
REMARK VINA RESULT:    -4.877      1.580      4.145
REMARK INTER + INTRA:          -6.110
REMARK INTER:                  -5.778
REMARK INTRA:                  -0.332
REMARK UNBOUND:                -0.236
REMARK  Name = 53323638
REMARK  5 active torsions:
REMARK  status: ('A' for Active; 'I' for Inactive)
REMARK    1  A    between atoms: O_1  and  C_7
REMARK    2  A    between atoms: O_2  and  C_12
REMARK    3  A    between atoms: O_4  and  C_13
REMARK    4  A    between atoms: CA_9  and  C_12
REMARK    5  A    between atoms: CA_11  and  C_13
REMARK                            x       y       z     vdW  Elec       q    Type
REMARK                         _______ _______ _______ _____ _____    ______ ____
ROOT
ATOM      1  N   UNL     1      11.100  -5.118  10.511  0.00  0.00    +0.000 NA
ATOM      2  C   UNL     1      11.016  -5.669   7.677  0.00  0.00    +0.000 C 
ATOM      3  C   UNL     1      12.237  -6.094   8.480  0.00  0.00    +0.000 C 
ATOM      4  CA  UNL     1      12.359  -5.375   9.820  0.00  0.00    +0.000 C 
ATOM      5  C   UNL     1       9.759  -5.795   8.519  0.00  0.00    +0.000 C 
ATOM      6  CA  UNL     1       9.977  -5.296   9.919  0.00  0.00    +0.000 C 
ENDROOT
BRANCH   2   7
ATOM      7  O   UNL     1      11.162  -4.336   7.196  0.00  0.00    +0.000 OA
ATOM      8  H   UNL     1      10.743  -3.742   7.841  0.00  0.00    +0.000 HD
ENDBRANCH   2   7
BRANCH   4  10
ATOM      9  OXT UNL     1      12.951  -3.122  10.463  0.00  0.00    +0.000 OA
ATOM     10  C   UNL     1      13.053  -4.055   9.680  0.00  0.00    +0.000 C 
BRANCH  10  11
ATOM     11  O   UNL     1      13.815  -4.032   8.560  0.00  0.00    +0.000 OA
ATOM     12  H   UNL     1      14.046  -3.117   8.293  0.00  0.00    +0.000 HD
ENDBRANCH  10  11
ENDBRANCH   4  10
BRANCH   6  14
ATOM     13  OXT UNL     1       8.428  -5.726  11.655  0.00  0.00    +0.000 OA
ATOM     14  C   UNL     1       8.753  -5.026  10.723  0.00  0.00    +0.000 C 
BRANCH  14  15
ATOM     15  O   UNL     1       8.146  -3.937  10.238  0.00  0.00    +0.000 OA
ATOM     16  H   UNL     1       7.266  -4.141   9.856  0.00  0.00    +0.000 HD
ENDBRANCH  14  15
ENDBRANCH   6  14
TORSDOF 5
ENDMDL
MODEL 6
REMARK VINA RESULT:    -4.873      1.715      2.264
REMARK INTER + INTRA:          -6.105
REMARK INTER:                  -5.792
REMARK INTRA:                  -0.313
REMARK UNBOUND:                -0.236
REMARK  Name = 53323638
REMARK  5 active torsions:
REMARK  status: ('A' for Active; 'I' for Inactive)
REMARK    1  A    between atoms: O_1  and  C_7
REMARK    2  A    between atoms: O_2  and  C_12
REMARK    3  A    between atoms: O_4  and  C_13
REMARK    4  A    between atoms: CA_9  and  C_12
REMARK    5  A    between atoms: CA_11  and  C_13
REMARK                            x       y       z     vdW  Elec       q    Type
REMARK                         _______ _______ _______ _____ _____    ______ ____
ROOT
ATOM      1  N   UNL     1      10.961  -6.359   9.337  0.00  0.00    +0.000 NA
ATOM      2  C   UNL     1       9.546  -4.394  10.911  0.00  0.00    +0.000 C 
ATOM      3  C   UNL     1      10.436  -5.409  11.616  0.00  0.00    +0.000 C 
ATOM      4  CA  UNL     1      10.757  -6.627  10.757  0.00  0.00    +0.000 C 
ATOM      5  C   UNL     1      10.139  -4.014   9.566  0.00  0.00    +0.000 C 
ATOM      6  CA  UNL     1      10.672  -5.215   8.837  0.00  0.00    +0.000 C 
ENDROOT
BRANCH   2   7
ATOM      7  O   UNL     1       8.225  -4.900  10.750  0.00  0.00    +0.000 OA
ATOM      8  H   UNL     1       8.075  -5.035   9.799  0.00  0.00    +0.000 HD
ENDBRANCH   2   7
BRANCH   4  10
ATOM      9  OXT UNL     1       9.527  -8.584  10.055  0.00  0.00    +0.000 OA
ATOM     10  C   UNL     1       9.688  -7.671  10.851  0.00  0.00    +0.000 C 
BRANCH  10  11
ATOM     11  O   UNL     1       8.914  -7.466  11.944  0.00  0.00    +0.000 OA
ATOM     12  H   UNL     1       8.639  -8.309  12.363  0.00  0.00    +0.000 HD
ENDBRANCH  10  11
ENDBRANCH   4  10
BRANCH   6  14
ATOM     13  OXT UNL     1      11.692  -5.767   6.775  0.00  0.00    +0.000 OA
ATOM     14  C   UNL     1      10.938  -5.040   7.383  0.00  0.00    +0.000 C 
BRANCH  14  15
ATOM     15  O   UNL     1      10.227  -4.001   6.931  0.00  0.00    +0.000 OA
ATOM     16  H   UNL     1      10.688  -3.517   6.214  0.00  0.00    +0.000 HD
ENDBRANCH  14  15
ENDBRANCH   6  14
TORSDOF 5
ENDMDL
MODEL 7
REMARK VINA RESULT:    -4.777     26.785     28.133
REMARK INTER + INTRA:          -5.990
REMARK INTER:                  -5.666
REMARK INTRA:                  -0.324
REMARK UNBOUND:                -0.236
REMARK  Name = 53323638
REMARK  5 active torsions:
REMARK  status: ('A' for Active; 'I' for Inactive)
REMARK    1  A    between atoms: O_1  and  C_7
REMARK    2  A    between atoms: O_2  and  C_12
REMARK    3  A    between atoms: O_4  and  C_13
REMARK    4  A    between atoms: CA_9  and  C_12
REMARK    5  A    between atoms: CA_11  and  C_13
REMARK                            x       y       z     vdW  Elec       q    Type
REMARK                         _______ _______ _______ _____ _____    ______ ____
ROOT
ATOM      1  N   UNL     1     -17.297   1.501   6.142  0.00  0.00    +0.000 NA
ATOM      2  C   UNL     1     -15.557  -0.567   7.159  0.00  0.00    +0.000 C 
ATOM      3  C   UNL     1     -15.697  -0.388   5.654  0.00  0.00    +0.000 C 
ATOM      4  CA  UNL     1     -16.939   0.401   5.253  0.00  0.00    +0.000 C 
ATOM      5  C   UNL     1     -15.641   0.777   7.861  0.00  0.00    +0.000 C 
ATOM      6  CA  UNL     1     -16.726   1.638   7.282  0.00  0.00    +0.000 C 
ENDROOT
BRANCH   2   7
ATOM      7  O   UNL     1     -16.550  -1.455   7.661  0.00  0.00    +0.000 OA
ATOM      8  H   UNL     1     -16.643  -2.184   7.023  0.00  0.00    +0.000 HD
ENDBRANCH   2   7
BRANCH   4  10
ATOM      9  OXT UNL     1     -18.785  -0.912   6.092  0.00  0.00    +0.000 OA
ATOM     10  C   UNL     1     -18.145  -0.479   5.145  0.00  0.00    +0.000 C 
BRANCH  10  11
ATOM     11  O   UNL     1     -18.435  -0.736   3.847  0.00  0.00    +0.000 OA
ATOM     12  H   UNL     1     -19.034  -0.061   3.464  0.00  0.00    +0.000 HD
ENDBRANCH  10  11
ENDBRANCH   4  10
BRANCH   6  14
ATOM     13  OXT UNL     1     -18.015   2.721   8.944  0.00  0.00    +0.000 OA
ATOM     14  C   UNL     1     -17.151   2.807   8.100  0.00  0.00    +0.000 C 
BRANCH  14  15
ATOM     15  O   UNL     1     -16.433   3.876   7.739  0.00  0.00    +0.000 OA
ATOM     16  H   UNL     1     -15.928   3.723   6.912  0.00  0.00    +0.000 HD
ENDBRANCH  14  15
ENDBRANCH   6  14
TORSDOF 5
ENDMDL
MODEL 8
REMARK VINA RESULT:    -4.705     18.225     19.906
REMARK INTER + INTRA:          -5.904
REMARK INTER:                  -5.702
REMARK INTRA:                  -0.202
REMARK UNBOUND:                -0.236
REMARK  Name = 53323638
REMARK  5 active torsions:
REMARK  status: ('A' for Active; 'I' for Inactive)
REMARK    1  A    between atoms: O_1  and  C_7
REMARK    2  A    between atoms: O_2  and  C_12
REMARK    3  A    between atoms: O_4  and  C_13
REMARK    4  A    between atoms: CA_9  and  C_12
REMARK    5  A    between atoms: CA_11  and  C_13
REMARK                            x       y       z     vdW  Elec       q    Type
REMARK                         _______ _______ _______ _____ _____    ______ ____
ROOT
ATOM      1  N   UNL     1      17.392  -6.395  -8.247  0.00  0.00    +0.000 NA
ATOM      2  C   UNL     1      15.911  -5.954 -10.686  0.00  0.00    +0.000 C 
ATOM      3  C   UNL     1      16.686  -4.798 -10.069  0.00  0.00    +0.000 C 
ATOM      4  CA  UNL     1      17.041  -5.025  -8.603  0.00  0.00    +0.000 C 
ATOM      5  C   UNL     1      16.647  -7.263 -10.464  0.00  0.00    +0.000 C 
ATOM      6  CA  UNL     1      17.200  -7.359  -9.070  0.00  0.00    +0.000 C 
ENDROOT
BRANCH   2   7
ATOM      7  O   UNL     1      14.593  -6.025 -10.152  0.00  0.00    +0.000 OA
ATOM      8  H   UNL     1      13.989  -5.630 -10.803  0.00  0.00    +0.000 HD
ENDBRANCH   2   7
BRANCH   4  10
ATOM      9  OXT UNL     1      15.511  -3.471  -7.563  0.00  0.00    +0.000 OA
ATOM     10  C   UNL     1      15.926  -4.613  -7.692  0.00  0.00    +0.000 C 
BRANCH  10  11
ATOM     11  O   UNL     1      15.437  -5.683  -7.020  0.00  0.00    +0.000 OA
ATOM     12  H   UNL     1      16.134  -6.346  -6.828  0.00  0.00    +0.000 HD
ENDBRANCH  10  11
ENDBRANCH   4  10
BRANCH   6  14
ATOM     13  OXT UNL     1      18.480  -9.345  -9.179  0.00  0.00    +0.000 OA
ATOM     14  C   UNL     1      17.614  -8.714  -8.615  0.00  0.00    +0.000 C 
BRANCH  14  15
ATOM     15  O   UNL     1      16.890  -9.054  -7.543  0.00  0.00    +0.000 OA
ATOM     16  H   UNL     1      17.102  -9.955  -7.221  0.00  0.00    +0.000 HD
ENDBRANCH  14  15
ENDBRANCH   6  14
TORSDOF 5
ENDMDL
MODEL 9
REMARK VINA RESULT:    -4.672     27.266     28.808
REMARK INTER + INTRA:          -5.864
REMARK INTER:                  -5.646
REMARK INTRA:                  -0.218
REMARK UNBOUND:                -0.236
REMARK  Name = 53323638
REMARK  5 active torsions:
REMARK  status: ('A' for Active; 'I' for Inactive)
REMARK    1  A    between atoms: O_1  and  C_7
REMARK    2  A    between atoms: O_2  and  C_12
REMARK    3  A    between atoms: O_4  and  C_13
REMARK    4  A    between atoms: CA_9  and  C_12
REMARK    5  A    between atoms: CA_11  and  C_13
REMARK                            x       y       z     vdW  Elec       q    Type
REMARK                         _______ _______ _______ _____ _____    ______ ____
ROOT
ATOM      1  N   UNL     1     -17.561   1.137   6.666  0.00  0.00    +0.000 NA
ATOM      2  C   UNL     1     -18.160   3.040   4.578  0.00  0.00    +0.000 C 
ATOM      3  C   UNL     1     -19.125   1.891   4.834  0.00  0.00    +0.000 C 
ATOM      4  CA  UNL     1     -18.500   0.743   5.622  0.00  0.00    +0.000 C 
ATOM      5  C   UNL     1     -17.534   3.505   5.880  0.00  0.00    +0.000 C 
ATOM      6  CA  UNL     1     -17.142   2.346   6.752  0.00  0.00    +0.000 C 
ENDROOT
BRANCH   2   7
ATOM      7  O   UNL     1     -17.152   2.660   3.646  0.00  0.00    +0.000 OA
ATOM      8  H   UNL     1     -16.299   2.975   3.990  0.00  0.00    +0.000 HD
ENDBRANCH   2   7
BRANCH   4  10
ATOM      9  OXT UNL     1     -18.305  -1.115   4.090  0.00  0.00    +0.000 OA
ATOM     10  C   UNL     1     -17.777  -0.215   4.727  0.00  0.00    +0.000 C 
BRANCH  10  11
ATOM     11  O   UNL     1     -16.448   0.047   4.719  0.00  0.00    +0.000 OA
ATOM     12  H   UNL     1     -16.144   0.425   5.572  0.00  0.00    +0.000 HD
ENDBRANCH  10  11
ENDBRANCH   4  10
BRANCH   6  14
ATOM     13  OXT UNL     1     -15.401   1.831   8.269  0.00  0.00    +0.000 OA
ATOM     14  C   UNL     1     -16.203   2.645   7.867  0.00  0.00    +0.000 C 
BRANCH  14  15
ATOM     15  O   UNL     1     -16.414   3.896   8.290  0.00  0.00    +0.000 OA
ATOM     16  H   UNL     1     -16.196   4.010   9.240  0.00  0.00    +0.000 HD
ENDBRANCH  14  15
ENDBRANCH   6  14
TORSDOF 5
ENDMDL
